# vtk DataFile Version 1.0
ECM-CELL DIFFUSION-MECHANICS
ASCII

DATASET UNSTRUCTURED_GRID
POINTS     2601 float
0.00000000E+000 0.00000000E+000 0.00000000E+000 
2.00000000E-002 0.00000000E+000 0.00000000E+000 
4.00000000E-002 0.00000000E+000 0.00000000E+000 
6.00000000E-002 0.00000000E+000 0.00000000E+000 
8.00000000E-002 0.00000000E+000 0.00000000E+000 
1.00000000E-001 0.00000000E+000 0.00000000E+000 
1.20000000E-001 0.00000000E+000 0.00000000E+000 
1.40000000E-001 0.00000000E+000 0.00000000E+000 
1.60000000E-001 0.00000000E+000 0.00000000E+000 
1.80000000E-001 0.00000000E+000 0.00000000E+000 
2.00000000E-001 0.00000000E+000 0.00000000E+000 
2.20000000E-001 0.00000000E+000 0.00000000E+000 
2.40000000E-001 0.00000000E+000 0.00000000E+000 
2.60000000E-001 0.00000000E+000 0.00000000E+000 
2.80000000E-001 0.00000000E+000 0.00000000E+000 
3.00000000E-001 0.00000000E+000 0.00000000E+000 
3.20000000E-001 0.00000000E+000 0.00000000E+000 
3.40000000E-001 0.00000000E+000 0.00000000E+000 
3.60000000E-001 0.00000000E+000 0.00000000E+000 
3.80000000E-001 0.00000000E+000 0.00000000E+000 
4.00000000E-001 0.00000000E+000 0.00000000E+000 
4.20000000E-001 0.00000000E+000 0.00000000E+000 
4.40000000E-001 0.00000000E+000 0.00000000E+000 
4.60000000E-001 0.00000000E+000 0.00000000E+000 
4.80000000E-001 0.00000000E+000 0.00000000E+000 
5.00000000E-001 0.00000000E+000 0.00000000E+000 
5.20000000E-001 0.00000000E+000 0.00000000E+000 
5.40000000E-001 0.00000000E+000 0.00000000E+000 
5.60000000E-001 0.00000000E+000 0.00000000E+000 
5.80000000E-001 0.00000000E+000 0.00000000E+000 
6.00000000E-001 0.00000000E+000 0.00000000E+000 
6.20000000E-001 0.00000000E+000 0.00000000E+000 
6.40000000E-001 0.00000000E+000 0.00000000E+000 
6.60000000E-001 0.00000000E+000 0.00000000E+000 
6.80000000E-001 0.00000000E+000 0.00000000E+000 
7.00000000E-001 0.00000000E+000 0.00000000E+000 
7.20000000E-001 0.00000000E+000 0.00000000E+000 
7.40000000E-001 0.00000000E+000 0.00000000E+000 
7.60000000E-001 0.00000000E+000 0.00000000E+000 
7.80000000E-001 0.00000000E+000 0.00000000E+000 
8.00000000E-001 0.00000000E+000 0.00000000E+000 
8.20000000E-001 0.00000000E+000 0.00000000E+000 
8.40000000E-001 0.00000000E+000 0.00000000E+000 
8.60000000E-001 0.00000000E+000 0.00000000E+000 
8.80000000E-001 0.00000000E+000 0.00000000E+000 
9.00000000E-001 0.00000000E+000 0.00000000E+000 
9.20000000E-001 0.00000000E+000 0.00000000E+000 
9.40000000E-001 0.00000000E+000 0.00000000E+000 
9.60000000E-001 0.00000000E+000 0.00000000E+000 
9.80000000E-001 0.00000000E+000 0.00000000E+000 
1.00000000E+000 0.00000000E+000 0.00000000E+000 
0.00000000E+000 2.00000000E-002 0.00000000E+000 
2.00000000E-002 2.00000000E-002 0.00000000E+000 
4.00000000E-002 2.00000000E-002 0.00000000E+000 
6.00000000E-002 2.00000000E-002 0.00000000E+000 
8.00000000E-002 2.00000000E-002 0.00000000E+000 
1.00000000E-001 2.00000000E-002 0.00000000E+000 
1.20000000E-001 2.00000000E-002 0.00000000E+000 
1.40000000E-001 2.00000000E-002 0.00000000E+000 
1.60000000E-001 2.00000000E-002 0.00000000E+000 
1.80000000E-001 2.00000000E-002 0.00000000E+000 
2.00000000E-001 2.00000000E-002 0.00000000E+000 
2.20000000E-001 2.00000000E-002 0.00000000E+000 
2.40000000E-001 2.00000000E-002 0.00000000E+000 
2.60000000E-001 2.00000000E-002 0.00000000E+000 
2.80000000E-001 2.00000000E-002 0.00000000E+000 
3.00000000E-001 2.00000000E-002 0.00000000E+000 
3.20000000E-001 2.00000000E-002 0.00000000E+000 
3.40000000E-001 2.00000000E-002 0.00000000E+000 
3.60000000E-001 2.00000000E-002 0.00000000E+000 
3.80000000E-001 2.00000000E-002 0.00000000E+000 
4.00000000E-001 2.00000000E-002 0.00000000E+000 
4.20000000E-001 2.00000000E-002 0.00000000E+000 
4.40000000E-001 2.00000000E-002 0.00000000E+000 
4.60000000E-001 2.00000000E-002 0.00000000E+000 
4.80000000E-001 2.00000000E-002 0.00000000E+000 
5.00000000E-001 2.00000000E-002 0.00000000E+000 
5.20000000E-001 2.00000000E-002 0.00000000E+000 
5.40000000E-001 2.00000000E-002 0.00000000E+000 
5.60000000E-001 2.00000000E-002 0.00000000E+000 
5.80000000E-001 2.00000000E-002 0.00000000E+000 
6.00000000E-001 2.00000000E-002 0.00000000E+000 
6.20000000E-001 2.00000000E-002 0.00000000E+000 
6.40000000E-001 2.00000000E-002 0.00000000E+000 
6.60000000E-001 2.00000000E-002 0.00000000E+000 
6.80000000E-001 2.00000000E-002 0.00000000E+000 
7.00000000E-001 2.00000000E-002 0.00000000E+000 
7.20000000E-001 2.00000000E-002 0.00000000E+000 
7.40000000E-001 2.00000000E-002 0.00000000E+000 
7.60000000E-001 2.00000000E-002 0.00000000E+000 
7.80000000E-001 2.00000000E-002 0.00000000E+000 
8.00000000E-001 2.00000000E-002 0.00000000E+000 
8.20000000E-001 2.00000000E-002 0.00000000E+000 
8.40000000E-001 2.00000000E-002 0.00000000E+000 
8.60000000E-001 2.00000000E-002 0.00000000E+000 
8.80000000E-001 2.00000000E-002 0.00000000E+000 
9.00000000E-001 2.00000000E-002 0.00000000E+000 
9.20000000E-001 2.00000000E-002 0.00000000E+000 
9.40000000E-001 2.00000000E-002 0.00000000E+000 
9.60000000E-001 2.00000000E-002 0.00000000E+000 
9.80000000E-001 2.00000000E-002 0.00000000E+000 
1.00000000E+000 2.00000000E-002 0.00000000E+000 
0.00000000E+000 4.00000000E-002 0.00000000E+000 
2.00000000E-002 4.00000000E-002 0.00000000E+000 
4.00000000E-002 4.00000000E-002 0.00000000E+000 
6.00000000E-002 4.00000000E-002 0.00000000E+000 
8.00000000E-002 4.00000000E-002 0.00000000E+000 
1.00000000E-001 4.00000000E-002 0.00000000E+000 
1.20000000E-001 4.00000000E-002 0.00000000E+000 
1.40000000E-001 4.00000000E-002 0.00000000E+000 
1.60000000E-001 4.00000000E-002 0.00000000E+000 
1.80000000E-001 4.00000000E-002 0.00000000E+000 
2.00000000E-001 4.00000000E-002 0.00000000E+000 
2.20000000E-001 4.00000000E-002 0.00000000E+000 
2.40000000E-001 4.00000000E-002 0.00000000E+000 
2.60000000E-001 4.00000000E-002 0.00000000E+000 
2.80000000E-001 4.00000000E-002 0.00000000E+000 
3.00000000E-001 4.00000000E-002 0.00000000E+000 
3.20000000E-001 4.00000000E-002 0.00000000E+000 
3.40000000E-001 4.00000000E-002 0.00000000E+000 
3.60000000E-001 4.00000000E-002 0.00000000E+000 
3.80000000E-001 4.00000000E-002 0.00000000E+000 
4.00000000E-001 4.00000000E-002 0.00000000E+000 
4.20000000E-001 4.00000000E-002 0.00000000E+000 
4.40000000E-001 4.00000000E-002 0.00000000E+000 
4.60000000E-001 4.00000000E-002 0.00000000E+000 
4.80000000E-001 4.00000000E-002 0.00000000E+000 
5.00000000E-001 4.00000000E-002 0.00000000E+000 
5.20000000E-001 4.00000000E-002 0.00000000E+000 
5.40000000E-001 4.00000000E-002 0.00000000E+000 
5.60000000E-001 4.00000000E-002 0.00000000E+000 
5.80000000E-001 4.00000000E-002 0.00000000E+000 
6.00000000E-001 4.00000000E-002 0.00000000E+000 
6.20000000E-001 4.00000000E-002 0.00000000E+000 
6.40000000E-001 4.00000000E-002 0.00000000E+000 
6.60000000E-001 4.00000000E-002 0.00000000E+000 
6.80000000E-001 4.00000000E-002 0.00000000E+000 
7.00000000E-001 4.00000000E-002 0.00000000E+000 
7.20000000E-001 4.00000000E-002 0.00000000E+000 
7.40000000E-001 4.00000000E-002 0.00000000E+000 
7.60000000E-001 4.00000000E-002 0.00000000E+000 
7.80000000E-001 4.00000000E-002 0.00000000E+000 
8.00000000E-001 4.00000000E-002 0.00000000E+000 
8.20000000E-001 4.00000000E-002 0.00000000E+000 
8.40000000E-001 4.00000000E-002 0.00000000E+000 
8.60000000E-001 4.00000000E-002 0.00000000E+000 
8.80000000E-001 4.00000000E-002 0.00000000E+000 
9.00000000E-001 4.00000000E-002 0.00000000E+000 
9.20000000E-001 4.00000000E-002 0.00000000E+000 
9.40000000E-001 4.00000000E-002 0.00000000E+000 
9.60000000E-001 4.00000000E-002 0.00000000E+000 
9.80000000E-001 4.00000000E-002 0.00000000E+000 
1.00000000E+000 4.00000000E-002 0.00000000E+000 
0.00000000E+000 6.00000000E-002 0.00000000E+000 
2.00000000E-002 6.00000000E-002 0.00000000E+000 
4.00000000E-002 6.00000000E-002 0.00000000E+000 
6.00000000E-002 6.00000000E-002 0.00000000E+000 
8.00000000E-002 6.00000000E-002 0.00000000E+000 
1.00000000E-001 6.00000000E-002 0.00000000E+000 
1.20000000E-001 6.00000000E-002 0.00000000E+000 
1.40000000E-001 6.00000000E-002 0.00000000E+000 
1.60000000E-001 6.00000000E-002 0.00000000E+000 
1.80000000E-001 6.00000000E-002 0.00000000E+000 
2.00000000E-001 6.00000000E-002 0.00000000E+000 
2.20000000E-001 6.00000000E-002 0.00000000E+000 
2.40000000E-001 6.00000000E-002 0.00000000E+000 
2.60000000E-001 6.00000000E-002 0.00000000E+000 
2.80000000E-001 6.00000000E-002 0.00000000E+000 
3.00000000E-001 6.00000000E-002 0.00000000E+000 
3.20000000E-001 6.00000000E-002 0.00000000E+000 
3.40000000E-001 6.00000000E-002 0.00000000E+000 
3.60000000E-001 6.00000000E-002 0.00000000E+000 
3.80000000E-001 6.00000000E-002 0.00000000E+000 
4.00000000E-001 6.00000000E-002 0.00000000E+000 
4.20000000E-001 6.00000000E-002 0.00000000E+000 
4.40000000E-001 6.00000000E-002 0.00000000E+000 
4.60000000E-001 6.00000000E-002 0.00000000E+000 
4.80000000E-001 6.00000000E-002 0.00000000E+000 
5.00000000E-001 6.00000000E-002 0.00000000E+000 
5.20000000E-001 6.00000000E-002 0.00000000E+000 
5.40000000E-001 6.00000000E-002 0.00000000E+000 
5.60000000E-001 6.00000000E-002 0.00000000E+000 
5.80000000E-001 6.00000000E-002 0.00000000E+000 
6.00000000E-001 6.00000000E-002 0.00000000E+000 
6.20000000E-001 6.00000000E-002 0.00000000E+000 
6.40000000E-001 6.00000000E-002 0.00000000E+000 
6.60000000E-001 6.00000000E-002 0.00000000E+000 
6.80000000E-001 6.00000000E-002 0.00000000E+000 
7.00000000E-001 6.00000000E-002 0.00000000E+000 
7.20000000E-001 6.00000000E-002 0.00000000E+000 
7.40000000E-001 6.00000000E-002 0.00000000E+000 
7.60000000E-001 6.00000000E-002 0.00000000E+000 
7.80000000E-001 6.00000000E-002 0.00000000E+000 
8.00000000E-001 6.00000000E-002 0.00000000E+000 
8.20000000E-001 6.00000000E-002 0.00000000E+000 
8.40000000E-001 6.00000000E-002 0.00000000E+000 
8.60000000E-001 6.00000000E-002 0.00000000E+000 
8.80000000E-001 6.00000000E-002 0.00000000E+000 
9.00000000E-001 6.00000000E-002 0.00000000E+000 
9.20000000E-001 6.00000000E-002 0.00000000E+000 
9.40000000E-001 6.00000000E-002 0.00000000E+000 
[...]
POINT_DATA     2601
SCALARS Ux float
LOOKUP_TABLE default
0.00000000E+000
0.00000000E+000
0.00000000E+000
0.00000000E+000
0.00000000E+000
0.00000000E+000
0.00000000E+000
0.00000000E+000
0.00000000E+000
0.00000000E+000
0.00000000E+000
0.00000000E+000
0.00000000E+000
0.00000000E+000
0.00000000E+000
0.00000000E+000
0.00000000E+000
0.00000000E+000
0.00000000E+000
0.00000000E+000
0.00000000E+000
0.00000000E+000
0.00000000E+000
0.00000000E+000
0.00000000E+000
0.00000000E+000
0.00000000E+000
0.00000000E+000
0.00000000E+000
0.00000000E+000
0.00000000E+000
0.00000000E+000
0.00000000E+000
0.00000000E+000
0.00000000E+000
0.00000000E+000
0.00000000E+000
0.00000000E+000
0.00000000E+000
0.00000000E+000
0.00000000E+000
0.00000000E+000
0.00000000E+000
0.00000000E+000
0.00000000E+000
0.00000000E+000
0.00000000E+000
0.00000000E+000
0.00000000E+000
0.00000000E+000
0.00000000E+000
0.00000000E+000
2.68369383E-001
2.12102469E-001
1.68789258E-001
1.37533313E-001
1.15150728E-001
9.86271011E-002
8.60489638E-002
7.62081420E-002
6.83263197E-002
6.18867697E-002
5.65360061E-002
5.20254239E-002
4.81757745E-002
4.48549227E-002
4.19635289E-002
3.94255921E-002
3.71820536E-002
3.51863762E-002
3.34014280E-002
3.17972464E-002
3.03494068E-002
2.90378149E-002
2.78458009E-002
2.67594299E-002
2.57669734E-002
2.48584972E-002
2.40255391E-002
2.32608536E-002
2.25582076E-002
2.19122167E-002
2.13182122E-002
2.07721328E-002
2.02704359E-002
1.98100236E-002
1.93881829E-002
1.90025341E-002
1.86509892E-002
1.83317159E-002
1.80431080E-002
1.77837601E-002
1.75524466E-002
1.73481036E-002
1.71698138E-002
1.70167941E-002
1.68883852E-002
1.67840425E-002
1.67033297E-002
1.66459128E-002
1.66115561E-002
1.66001193E-002
1.00000000E+000
5.25702758E-001
4.09149841E-001
3.24808516E-001
2.66719926E-001
2.24798076E-001
1.93527405E-001
1.69491637E-001
1.50537426E-001
1.35260790E-001
1.22717430E-001
1.12253612E-001
1.03404814E-001
9.58331848E-002
8.92878506E-002
8.35790427E-002
7.85608232E-002
7.41192886E-002
7.01643488E-002
6.66238904E-002
6.34395622E-002
6.05636838E-002
5.79569468E-002
5.55866812E-002
5.34255341E-002
5.14504499E-002
4.96418761E-002
4.79831390E-002
4.64599473E-002
4.50599961E-002
4.37726473E-002
4.25886704E-002
4.15000303E-002
4.04997140E-002
3.95815861E-002
3.87402701E-002
3.79710490E-002
3.72697815E-002
3.66328328E-002
3.60570154E-002
3.55395395E-002
3.50779715E-002
3.46701984E-002
3.43143984E-002
3.40090156E-002
3.37527399E-002
3.35444892E-002
3.33833962E-002
3.32687970E-002
3.32002232E-002
3.31773962E-002
1.00000000E+000
7.50057487E-001
5.65942880E-001
4.57425975E-001
3.80804464E-001
3.24449075E-001
2.81572600E-001
2.48081057E-001
2.21330398E-001
1.99552105E-001
1.81527728E-001
1.66396110E-001
1.53534614E-001
1.42483784E-001
1.32898294E-001
1.24514273E-001
1.17127057E-001
1.10575750E-001
1.04732308E-001
9.94936955E-002
9.47761581E-002
9.05109884E-002
8.66413470E-002
8.31198514E-002
7.99067248E-002
7.69683613E-002
7.42762020E-002
7.18058471E-002
6.95363494E-002
6.74496460E-002
6.55301006E-002
6.37641290E-002
6.21398942E-002
6.06470544E-002
5.92765545E-002
5.80204532E-002
5.68717778E-002
5.58244033E-002
5.48729503E-002
5.40126992E-002
5.32395173E-002
5.25497978E-002
5.19404084E-002
5.14086471E-002
5.09522059E-002
5.05691408E-002
5.02578459E-002
5.00170336E-002
4.98457187E-002
4.97432055E-002
4.97090803E-002
1.00000000E+000
8.24550346E-001
6.75114072E-001
5.60734046E-001
4.76134056E-001
4.11366045E-001
3.60670025E-001
3.20197484E-001
2.87321479E-001
2.60201206E-001
2.37520381E-001
2.18320190E-001
2.01890108E-001
1.87695112E-001
1.75326296E-001
1.64466812E-001
1.54868008E-001
1.46332457E-001
1.38701708E-001
1.31847327E-001
1.25664260E-001
1.20065857E-001
1.14980092E-001
1.10346676E-001
1.06114809E-001
1.02241436E-001
9.86898590E-002
9.54286480E-002
9.24307564E-002
8.96728150E-002
8.71345564E-002
8.47983444E-002
8.26487882E-002
8.06724228E-002
7.88574448E-002
7.71934907E-002
7.56714524E-002
7.42833219E-002
7.30220605E-002
7.18814880E-002
7.08561897E-002
6.99414370E-002
6.91331211E-002
6.84276962E-002
6.78221326E-002
6.73138770E-002
6.69008201E-002
6.65812701E-002
6.63539320E-002
6.62178917E-002
6.61726052E-002
1.00000000E+000
8.64318558E-001
7.40969768E-001
6.36913520E-001
5.52567629E-001
4.84811692E-001
4.29918819E-001
3.84963426E-001
3.47722067E-001
3.16524087E-001
2.90111401E-001
2.67530226E-001
2.48050953E-001
2.31109876E-001
2.16266971E-001
2.03175244E-001
1.91558349E-001
1.81194122E-001
1.71902357E-001
1.63535650E-001
1.55972481E-001
1.49111927E-001
1.42869600E-001
1.37174491E-001
1.31966490E-001
1.27194444E-001
1.22814594E-001
1.18789341E-001
1.15086236E-001
1.11677169E-001
1.08537707E-001
1.05646540E-001
1.02985040E-001
1.00536880E-001
9.82877265E-002
9.62249763E-002
9.43375400E-002
9.26156559E-002
9.10507353E-002
8.96352302E-002
8.83625218E-002
8.72268262E-002
8.62231138E-002
8.53470421E-002
8.45948985E-002
8.39635531E-002
8.34504191E-002
8.30534212E-002
8.27709703E-002
8.26019449E-002
8.25456770E-002
1.00000000E+000
8.89030051E-001
7.84884230E-001
6.92213323E-001
6.12691033E-001
5.45677320E-001
4.89468611E-001
4.42195953E-001
4.02212968E-001
3.68159938E-001
3.38943254E-001
3.13691927E-001
2.91713589E-001
2.72456595E-001
2.55479387E-001
2.40426450E-001
2.27009679E-001
2.14994019E-001
2.04186397E-001
1.94427172E-001
1.85583499E-001
1.77544153E-001
1.70215470E-001
1.63518137E-001
1.57384651E-001
1.51757280E-001
1.46586430E-001
1.41829315E-001
1.37448887E-001
1.33412952E-001
1.29693445E-001
1.26265831E-001
1.23108610E-001
1.20202904E-001
1.17532105E-001
1.15081588E-001
1.12838464E-001
1.10791371E-001
1.08930302E-001
1.07246452E-001
1.05732091E-001
1.04380460E-001
1.03185675E-001
1.02142653E-001
1.01247047E-001
1.00495188E-001
9.98840434E-002
9.94111803E-002
9.90747340E-002
9.88733886E-002
9.88063601E-002
1.00000000E+000
9.05968327E-001
8.16099525E-001
7.33560768E-001
6.60020106E-001
5.95763908E-001
5.40176757E-001
4.92241013E-001
4.50863962E-001
4.15033298E-001
3.83868466E-001
3.56626692E-001
3.32690837E-001
3.11551608E-001
2.92789535E-001
2.76058816E-001
2.61073620E-001
2.47596814E-001
2.35430814E-001
2.24410228E-001
2.14395951E-001
2.05270431E-001
1.96933869E-001
1.89301150E-001
1.82299374E-001
1.75865841E-001
1.69946420E-001
1.64494203E-001
1.59468410E-001
1.54833474E-001
1.50558292E-001
1.46615593E-001
1.42981418E-001
1.39634676E-001
1.36556776E-001
1.33731312E-001
1.31143803E-001
1.28781461E-001
1.26633008E-001
1.24688506E-001
1.22939222E-001
1.21377512E-001
1.19996716E-001
1.18791075E-001
1.17755658E-001
1.16886306E-001
1.16179576E-001
1.15632704E-001
1.15243574E-001
1.15010689E-001
1.14933159E-001
1.00000000E+000
9.18335388E-001
8.39397423E-001
7.65406692E-001
6.97773814E-001
6.37073993E-001
5.83229631E-001
5.35763627E-001
4.94016592E-001
4.57288305E-001
4.24912903E-001
3.96291409E-001
3.70901148E-001
3.48293729E-001
3.28088045E-001
3.09961651E-001
2.93642157E-001
2.78899374E-001
2.65538453E-001
2.53394058E-001
2.42325481E-001
2.32212584E-001
2.22952444E-001
2.14456582E-001
2.06648676E-001
1.99462674E-001
1.92841226E-001
1.86734389E-001
1.81098548E-001
1.75895509E-001
1.71091749E-001
1.66657781E-001
1.62567620E-001
1.58798330E-001
1.55329646E-001
1.52143645E-001
1.49224473E-001
1.46558109E-001
1.44132162E-001
1.41935701E-001
1.39959107E-001
1.38193950E-001
1.36632878E-001
1.35269526E-001
1.34098444E-001
1.33115027E-001
1.32315464E-001
1.31696694E-001
1.31256369E-001
1.30992832E-001
1.30905095E-001
1.00000000E+000
9.27778028E-001
8.57439805E-001
7.90590847E-001
7.28371247E-001
6.71402952E-001
6.19853528E-001
5.73561267E-001
5.32166271E-001
4.95214996E-001
4.62229952E-001
4.32750104E-001
4.06351169E-001
3.82653636E-001
3.61323853E-001
3.42071533E-001
3.24645648E-001
3.08829803E-001
2.94437682E-001
2.81308848E-001
2.69305004E-001
2.58306741E-001
2.48210750E-001
2.38927444E-001
2.30378947E-001
2.22497396E-001
2.15223509E-001
2.08505373E-001
2.02297427E-001
1.96559598E-001
1.91256572E-001
1.86357172E-001
1.81833833E-001
1.77662155E-001
1.73820518E-001
1.70289756E-001
1.67052877E-001
1.64094823E-001
1.61402264E-001
1.58963421E-001
1.56767914E-001
1.54806632E-001
1.53071620E-001
1.51555989E-001
1.50253828E-001
1.49160144E-001
1.48270798E-001
1.47582466E-001
1.47092598E-001
1.46799393E-001
1.46701777E-001
1.00000000E+000
9.35231671E-001
8.71819933E-001
8.10958456E-001
7.53559408E-001
7.00203816E-001
6.51158183E-001
6.06434752E-001
5.65867550E-001
5.29183077E-001
4.96055320E-001
4.66143503E-001
4.39115425E-001
4.14660400E-001
3.92495322E-001
3.72366506E-001
3.54049081E-001
3.37345080E-001
3.22080950E-001
3.08104894E-001
2.95284265E-001
2.83503161E-001
2.72660241E-001
2.62666806E-001
2.53445107E-001
2.44926892E-001
2.37052140E-001
2.29767981E-001
2.23027762E-001
2.16790255E-001
2.11018965E-001
2.05681549E-001
2.00749307E-001
1.96196752E-001
1.92001235E-001
1.88142624E-001
1.84603028E-001
1.81366556E-001
1.78419115E-001
1.75748227E-001
1.73342880E-001
1.71193395E-001
1.69291309E-001
1.67629285E-001
1.66201022E-001
1.65001191E-001
1.64025375E-001
1.63270023E-001
1.62732407E-001
1.62410603E-001
1.62303463E-001
1.00000000E+000
9.41268549E-001
8.83547054E-001
8.27745057E-001
7.74594298E-001
7.24608591E-001
6.78082318E-001
6.35118242E-001
5.95670656E-001
5.59591139E-001
5.26668732E-001
4.96661057E-001
4.69316263E-001
4.44387272E-001
4.21640260E-001
4.00859113E-001
3.81847240E-001
3.64427724E-001
3.48442508E-001
3.33751064E-001
3.20228828E-001
3.07765580E-001
2.96263874E-001
2.85637572E-001
2.75810509E-001
2.66715291E-001
2.58292238E-001
2.50488442E-001
2.43256955E-001
2.36556068E-001
2.30348691E-001
2.24601815E-001
2.19286034E-001
2.14375145E-001
2.09845789E-001
2.05677141E-001
2.01850649E-001
1.98349795E-001
1.95159897E-001
1.92267933E-001
1.89662390E-001
1.87333130E-001
1.85271282E-001
1.83469141E-001
1.81920085E-001
1.80618510E-001
1.79559765E-001
1.78740107E-001
1.78156664E-001
1.77807405E-001
1.77691120E-001
1.00000000E+000
9.46259036E-001
8.93290697E-001
8.41803033E-001
7.92387573E-001
7.45488451E-001
7.01394682E-001
6.60251824E-001
6.22085974E-001
5.86832692E-001
5.54365114E-001
5.24517951E-001
4.97106146E-001
4.71938349E-001
4.48826011E-001
4.27589105E-001
4.08059382E-001
3.90081931E-001
3.73515617E-001
3.58232801E-001
3.44118649E-001
3.31070212E-001
3.18995411E-001
3.07812010E-001
2.97446621E-001
2.87833771E-001
2.78915051E-001
2.70638332E-001
2.62957078E-001
2.55829721E-001
2.49219114E-001
2.43092045E-001
2.37418812E-001
2.32172847E-001
2.27330385E-001
2.22870179E-001
2.18773241E-001
2.15022629E-001
2.11603247E-001
2.08501677E-001
2.05706035E-001
2.03205841E-001
2.00991908E-001
1.99056247E-001
1.97391987E-001
1.95993302E-001
1.94855356E-001
1.93974255E-001
1.93347009E-001
1.92971502E-001
1.92846473E-001
1.00000000E+000
9.50453785E-001
9.01512205E-001
8.53736858E-001
8.07610522E-001
7.63513771E-001
7.21715853E-001
6.82378408E-001
6.45568456E-001
6.11276373E-001
5.79435091E-001
5.49937879E-001
5.22653327E-001
4.97437071E-001
4.74140439E-001
4.52616480E-001
4.32723916E-001
4.14329545E-001
3.97309518E-001
3.81549845E-001
3.66946380E-001
3.53404484E-001
3.40838490E-001
3.29171066E-001
3.18332537E-001
3.08260209E-001
2.98897717E-001
2.90194406E-001
2.82104771E-001
2.74587930E-001
2.67607162E-001
2.61129479E-001
2.55125253E-001
2.49567880E-001
2.44433478E-001
2.39700624E-001
2.35350121E-001
2.31364791E-001
2.27729292E-001
2.24429959E-001
2.21454662E-001
2.18792689E-001
2.16434633E-001
2.14372302E-001
2.12598642E-001
2.11107666E-001
2.09894401E-001
2.08954839E-001
2.08285899E-001
2.07885402E-001
2.07752047E-001
1.00000000E+000
9.54028656E-001
9.08539684E-001
8.63985888E-001
8.20765266E-001
7.79203338E-001
7.39544484E-001
7.01951866E-001
6.66514124E-001
6.33256384E-001
6.02153152E-001
5.73141181E-001
5.46131070E-001
5.21016971E-001
4.97684256E-001
4.76015271E-001
4.55893458E-001
4.37206156E-001
4.19846383E-001
4.03713869E-001
3.88715542E-001
3.74765637E-001
3.61785552E-001
3.49703551E-001
3.38454356E-001
3.27978711E-001
3.18222910E-001
3.09138343E-001
3.00681050E-001
2.92811308E-001
2.85493239E-001
2.78694458E-001
2.72385746E-001
2.66540759E-001
2.61135761E-001
2.56149388E-001
2.51562439E-001
2.47357680E-001
2.43519682E-001
2.40034673E-001
2.36890401E-001
2.34076024E-001
2.31582009E-001
2.29400040E-001
2.27522948E-001
2.25944641E-001
2.24660053E-001
2.23665100E-001
2.22956639E-001
2.22532448E-001
2.22391197E-001
1.00000000E+000
9.57110769E-001
9.14612802E-001
8.72876507E-001
8.32233259E-001
7.92961983E-001
7.55281567E-001
7.19349089E-001
6.85262948E-001
6.53069469E-001
6.22771461E-001
5.94337378E-001
5.67710090E-001
5.42814661E-001
5.19564853E-001
4.97868300E-001
4.77630466E-001
4.58757533E-001
4.41158427E-001
4.24746169E-001
4.09438687E-001
3.95159265E-001
3.81836691E-001
3.69405235E-001
3.57804477E-001
3.46979063E-001
3.36878416E-001
3.27456412E-001
3.18671058E-001
3.10484173E-001
3.02861081E-001
2.95770323E-001
2.89183381E-001
2.83074436E-001
2.77420135E-001
2.72199385E-001
2.67393165E-001
2.62984356E-001
2.58957590E-001
2.55299117E-001
2.51996678E-001
2.49039403E-001
2.46417719E-001
2.44123261E-001
2.42148810E-001
2.40488222E-001
2.39136385E-001
2.38089172E-001
2.37343409E-001
2.36896846E-001
2.36748140E-001
1.00000000E+000
9.59794344E-001
9.19910668E-001
8.80655903E-001
8.42308587E-001
8.05108600E-001
7.69250760E-001
7.34882412E-001
7.02104553E-001
6.70975687E-001
6.41517440E-001
6.13720996E-001
5.87553636E-001
5.62964828E-001
5.39891587E-001
5.18262947E-001
4.98003564E-001
4.79036501E-001
4.61285305E-001
4.44675504E-001
4.29135632E-001
4.14597882E-001
4.00998493E-001
3.88277916E-001
3.76380845E-001
3.65256136E-001
3.54856657E-001
3.45139100E-001
3.36063762E-001
3.27594313E-001
3.19697570E-001
3.12343267E-001
3.05503840E-001
2.99154221E-001
2.93271647E-001
2.87835484E-001
2.82827061E-001
2.78229525E-001
2.74027704E-001
2.70207988E-001
2.66758220E-001
2.63667595E-001
2.60926581E-001
2.58526836E-001
2.56461149E-001
2.54723379E-001
2.53308409E-001
2.52212103E-001
2.51431281E-001
2.50963685E-001
2.50807969E-001
1.00000000E+000
9.62150717E-001
9.24569794E-001
8.87514509E-001
8.51221100E-001
8.15896835E-001
7.81714707E-001
7.48810891E-001
7.17284783E-001
6.87201141E-001
6.58593703E-001
6.31469683E-001
6.05814578E-001
5.81596871E-001
5.58772352E-001
5.37287884E-001
5.17084570E-001
4.98100314E-001
4.80271828E-001
4.63536162E-001
4.47831822E-001
4.33099561E-001
4.19282907E-001
4.06328487E-001
3.94186196E-001
3.82809254E-001
3.72154178E-001
3.62180696E-001
3.52851624E-001
3.44132720E-001
3.35992518E-001
3.28402166E-001
3.21335257E-001
3.14767668E-001
3.08677402E-001
3.03044447E-001
2.97850629E-001
2.93079497E-001
2.88716195E-001
2.84747363E-001
2.81161040E-001
2.77946574E-001
2.75094548E-001
2.72596709E-001
2.70445912E-001
2.68636064E-001
2.67162083E-001
2.66019860E-001
2.65206228E-001
2.64718942E-001
2.64556663E-001
1.00000000E+000
9.64234904E-001
9.28696026E-001
8.93601279E-001
8.59152718E-001
8.25530367E-001
7.92887844E-001
7.61349947E-001
7.31012118E-001
7.01941519E-001
6.74179325E-001
6.47743831E-001
6.22633953E-001
5.98832822E-001
5.76311213E-001
5.55030662E-001
5.34946175E-001
5.16008513E-001
4.98166054E-001
4.81366273E-001
4.65556882E-001
4.50686683E-001
4.36706189E-001
4.23568044E-001
4.11227302E-001
3.99641581E-001
3.88771136E-001
3.78578862E-001
3.69030247E-001
3.60093295E-001
3.51738430E-001
3.43938382E-001
3.36668062E-001
3.29904450E-001
3.23626462E-001
3.17814842E-001
3.12452046E-001
3.07522135E-001
3.03010680E-001
2.98904666E-001
2.95192414E-001
2.91863501E-001
2.88908695E-001
2.86319891E-001
2.84090061E-001
2.82213206E-001
2.80684314E-001
2.79499331E-001
2.78655130E-001
2.78149492E-001
2.77981093E-001
1.00000000E+000
9.66090016E-001
9.32372678E-001
8.99034308E-001
8.66249096E-001
8.34174248E-001
8.02946388E-001
7.72679371E-001
7.43463474E-001
7.15365819E-001
6.88431785E-001
6.62687124E-001
6.38140502E-001
6.14786216E-001
5.92606890E-001
5.71576008E-001
5.51660205E-001
5.32821246E-001
5.15017713E-001
4.98206383E-001
4.82343338E-001
4.67384829E-001
4.53287938E-001
4.40011065E-001
4.27514272E-001
4.15759516E-001
4.04710793E-001
3.94334212E-001
3.84598013E-001
3.75472552E-001
3.66930256E-001
3.58945556E-001
3.51494809E-001
3.44556214E-001
3.38109723E-001
3.32136948E-001
3.26621079E-001
3.21546790E-001
3.16900167E-001
3.12668625E-001
3.08840844E-001
3.05406697E-001
3.02357197E-001
2.99684441E-001
2.97381565E-001
2.95442702E-001
2.93862946E-001
2.92638322E-001
2.91765765E-001
2.91243097E-001
2.91069019E-001
1.00000000E+000
9.67750316E-001
9.35666208E-001
9.03908370E-001
8.72628089E-001
8.41963391E-001
8.12036089E-001
7.82949847E-001
7.54789263E-001
7.27619910E-001
7.01489157E-001
6.76427591E-001
6.52450844E-001
6.29561634E-001
6.07751870E-001
5.87004690E-001
5.67296361E-001
5.48597981E-001
5.30876963E-001
5.14098289E-001
4.98225554E-001
4.83221811E-001
4.69050236E-001
4.55674647E-001
4.43059891E-001
4.31172127E-001
4.19979024E-001
4.09449887E-001
3.99555732E-001
3.90269313E-001
3.81565129E-001
3.73419390E-001
3.65809987E-001
3.58716429E-001
3.52119791E-001
3.46002646E-001
3.40348999E-001
3.35144222E-001
3.30374991E-001
3.26029223E-001
3.22096018E-001
3.18565606E-001
3.15429299E-001
3.12679443E-001
3.10309377E-001
3.08313402E-001
3.06686746E-001
3.05425542E-001
3.04526801E-001
3.03988402E-001
3.03809076E-001
1.00000000E+000
9.69243369E-001
9.38630254E-001
9.08300353E-001
8.78385976E-001
8.49008969E-001
8.20278271E-001
7.92288231E-001
7.65117685E-001
7.38829765E-001
7.13472335E-001
6.89078930E-001
6.65670052E-001
6.43254701E-001
6.21832000E-001
6.01392824E-001
5.81921365E-001
5.63396571E-001
5.45793429E-001
5.29084093E-001
5.13238837E-001
4.98226853E-001
4.84016904E-001
4.70577844E-001
4.57879028E-001
4.45890628E-001
4.34583863E-001
4.23931166E-001
4.13906297E-001
4.04484416E-001
3.95642115E-001
3.87357432E-001
3.79609840E-001
3.72380224E-001
3.65650845E-001
3.59405301E-001
3.53628483E-001
3.48306523E-001
3.43426748E-001
3.38977633E-001
3.34948758E-001
3.31330756E-001
3.28115283E-001
3.25294973E-001
3.22863406E-001
3.20815082E-001
3.19145389E-001
3.17850586E-001
3.16927780E-001
3.16374915E-001
3.16190763E-001
1.00000000E+000
9.70591603E-001
9.41308571E-001
9.12273246E-001
8.83602108E-001
8.55403286E-001
8.27774542E-001
8.00801814E-001
7.74558335E-001
7.49104313E-001
7.24487122E-001
7.00741895E-001
6.77892441E-001
6.55952379E-001
6.34926390E-001
6.14811509E-001
5.95598405E-001
5.77272581E-001
5.59815480E-001
5.43205472E-001
5.27418718E-001
5.12429904E-001
4.98212860E-001
4.84741076E-001
4.71988106E-001
4.59927906E-001
4.48535082E-001
4.37785085E-001
4.27654355E-001
4.18120421E-001
4.09161963E-001
4.00758854E-001
3.92892178E-001
3.85544227E-001
3.78698493E-001
3.72339646E-001
3.66453508E-001
3.61027020E-001
3.56048210E-001
3.51506158E-001
3.47390962E-001
3.43693704E-001
3.40406419E-001
3.37522064E-001
3.35034490E-001
3.32938420E-001
3.31229427E-001
3.29903911E-001
3.28959091E-001
3.28392989E-001
3.28204419E-001
1.00000000E+000
9.71813443E-001
9.43737186E-001
9.15879113E-001
8.88342404E-001
8.61223515E-001
8.34610499E-001
8.08581753E-001
7.83205200E-001
7.58537916E-001
7.34626147E-001
7.11505676E-001
6.89202455E-001
6.67733441E-001
6.47107555E-001
6.27326707E-001
6.08386825E-001
5.90278858E-001
5.72989714E-001
5.56503121E-001
5.40800388E-001
5.25861080E-001
5.11663591E-001
4.98185633E-001
4.85404639E-001
4.73298096E-001
4.61843806E-001
4.51020103E-001
4.40806006E-001
4.31181350E-001
4.22126866E-001
4.13624249E-001
4.05656191E-001
3.98206406E-001
3.91259638E-001
3.84801656E-001
3.78819245E-001
3.73300190E-001
3.68233253E-001
3.63608154E-001
3.59415545E-001
3.55646987E-001
3.52294924E-001
3.49352663E-001
3.46814352E-001
3.44674959E-001
3.42930257E-001
3.41576808E-001
3.40611951E-001
3.40033792E-001
3.39841198E-001
1.00000000E+000
9.72924160E-001
9.45946021E-001
9.19161332E-001
8.92662034E-001
8.66534602E-001
8.40858647E-001
8.15705835E-001
7.91139149E-001
7.67212485E-001
7.43970577E-001
7.21449195E-001
6.99675577E-001
6.78669036E-001
6.58441695E-001
6.38999287E-001
6.20341993E-001
6.02465260E-001
5.85360604E-001
5.69016337E-001
5.53418253E-001
5.38550218E-001